Position Data

256 atoms
1 atom types

0.0 6.00 xlo xhi
0.0 6.00 ylo yhi
0.0 6.00 zlo zhi

Atoms

1 1 0.0 0.0 0.0
2 1 0.0 0.775 0.775
3 1 0.775 0.0 0.775
4 1 0.775 0.775 0.0
5 1 0.0 0.0 1.55
6 1 0.0 0.775 2.325
7 1 0.775 0.0 2.325
8 1 0.775 0.775 1.55
9 1 0.0 0.0 3.1
10 1 0.0 0.775 3.875
11 1 0.775 0.0 3.875
12 1 0.775 0.775 3.1
13 1 0.0 0.0 4.65
14 1 0.0 0.775 5.425000000000001
15 1 0.775 0.0 5.425000000000001
16 1 0.775 0.775 4.65
17 1 0.0 1.55 0.0
18 1 0.0 2.325 0.775
19 1 0.775 1.55 0.775
20 1 0.775 2.325 0.0
21 1 0.0 1.55 1.55
22 1 0.0 2.325 2.325
23 1 0.775 1.55 2.325
24 1 0.775 2.325 1.55
25 1 0.0 1.55 3.1
26 1 0.0 2.325 3.875
27 1 0.775 1.55 3.875
28 1 0.775 2.325 3.1
29 1 0.0 1.55 4.65
30 1 0.0 2.325 5.425000000000001
31 1 0.775 1.55 5.425000000000001
32 1 0.775 2.325 4.65
33 1 0.0 3.1 0.0
34 1 0.0 3.875 0.775
35 1 0.775 3.1 0.775
36 1 0.775 3.875 0.0
37 1 0.0 3.1 1.55
38 1 0.0 3.875 2.325
39 1 0.775 3.1 2.325
40 1 0.775 3.875 1.55
41 1 0.0 3.1 3.1
42 1 0.0 3.875 3.875
43 1 0.775 3.1 3.875
44 1 0.775 3.875 3.1
45 1 0.0 3.1 4.65
46 1 0.0 3.875 5.425000000000001
47 1 0.775 3.1 5.425000000000001
48 1 0.775 3.875 4.65
49 1 0.0 4.65 0.0
50 1 0.0 5.425000000000001 0.775
51 1 0.775 4.65 0.775
52 1 0.775 5.425000000000001 0.0
53 1 0.0 4.65 1.55
54 1 0.0 5.425000000000001 2.325
55 1 0.775 4.65 2.325
56 1 0.775 5.425000000000001 1.55
57 1 0.0 4.65 3.1
58 1 0.0 5.425000000000001 3.875
59 1 0.775 4.65 3.875
60 1 0.775 5.425000000000001 3.1
61 1 0.0 4.65 4.65
62 1 0.0 5.425000000000001 5.425000000000001
63 1 0.775 4.65 5.425000000000001
64 1 0.775 5.425000000000001 4.65
65 1 1.55 0.0 0.0
66 1 1.55 0.775 0.775
67 1 2.325 0.0 0.775
68 1 2.325 0.775 0.0
69 1 1.55 0.0 1.55
70 1 1.55 0.775 2.325
71 1 2.325 0.0 2.325
72 1 2.325 0.775 1.55
73 1 1.55 0.0 3.1
74 1 1.55 0.775 3.875
75 1 2.325 0.0 3.875
76 1 2.325 0.775 3.1
77 1 1.55 0.0 4.65
78 1 1.55 0.775 5.425000000000001
79 1 2.325 0.0 5.425000000000001
80 1 2.325 0.775 4.65
81 1 1.55 1.55 0.0
82 1 1.55 2.325 0.775
83 1 2.325 1.55 0.775
84 1 2.325 2.325 0.0
85 1 1.55 1.55 1.55
86 1 1.55 2.325 2.325
87 1 2.325 1.55 2.325
88 1 2.325 2.325 1.55
89 1 1.55 1.55 3.1
90 1 1.55 2.325 3.875
91 1 2.325 1.55 3.875
92 1 2.325 2.325 3.1
93 1 1.55 1.55 4.65
94 1 1.55 2.325 5.425000000000001
95 1 2.325 1.55 5.425000000000001
96 1 2.325 2.325 4.65
97 1 1.55 3.1 0.0
98 1 1.55 3.875 0.775
99 1 2.325 3.1 0.775
100 1 2.325 3.875 0.0
101 1 1.55 3.1 1.55
102 1 1.55 3.875 2.325
103 1 2.325 3.1 2.325
104 1 2.325 3.875 1.55
105 1 1.55 3.1 3.1
106 1 1.55 3.875 3.875
107 1 2.325 3.1 3.875
108 1 2.325 3.875 3.1
109 1 1.55 3.1 4.65
110 1 1.55 3.875 5.425000000000001
111 1 2.325 3.1 5.425000000000001
112 1 2.325 3.875 4.65
113 1 1.55 4.65 0.0
114 1 1.55 5.425000000000001 0.775
115 1 2.325 4.65 0.775
116 1 2.325 5.425000000000001 0.0
117 1 1.55 4.65 1.55
118 1 1.55 5.425000000000001 2.325
119 1 2.325 4.65 2.325
120 1 2.325 5.425000000000001 1.55
121 1 1.55 4.65 3.1
122 1 1.55 5.425000000000001 3.875
123 1 2.325 4.65 3.875
124 1 2.325 5.425000000000001 3.1
125 1 1.55 4.65 4.65
126 1 1.55 5.425000000000001 5.425000000000001
127 1 2.325 4.65 5.425000000000001
128 1 2.325 5.425000000000001 4.65
129 1 3.1 0.0 0.0
130 1 3.1 0.775 0.775
131 1 3.875 0.0 0.775
132 1 3.875 0.775 0.0
133 1 3.1 0.0 1.55
134 1 3.1 0.775 2.325
135 1 3.875 0.0 2.325
136 1 3.875 0.775 1.55
137 1 3.1 0.0 3.1
138 1 3.1 0.775 3.875
139 1 3.875 0.0 3.875
140 1 3.875 0.775 3.1
141 1 3.1 0.0 4.65
142 1 3.1 0.775 5.425000000000001
143 1 3.875 0.0 5.425000000000001
144 1 3.875 0.775 4.65
145 1 3.1 1.55 0.0
146 1 3.1 2.325 0.775
147 1 3.875 1.55 0.775
148 1 3.875 2.325 0.0
149 1 3.1 1.55 1.55
150 1 3.1 2.325 2.325
151 1 3.875 1.55 2.325
152 1 3.875 2.325 1.55
153 1 3.1 1.55 3.1
154 1 3.1 2.325 3.875
155 1 3.875 1.55 3.875
156 1 3.875 2.325 3.1
157 1 3.1 1.55 4.65
158 1 3.1 2.325 5.425000000000001
159 1 3.875 1.55 5.425000000000001
160 1 3.875 2.325 4.65
161 1 3.1 3.1 0.0
162 1 3.1 3.875 0.775
163 1 3.875 3.1 0.775
164 1 3.875 3.875 0.0
165 1 3.1 3.1 1.55
166 1 3.1 3.875 2.325
167 1 3.875 3.1 2.325
168 1 3.875 3.875 1.55
169 1 3.1 3.1 3.1
170 1 3.1 3.875 3.875
171 1 3.875 3.1 3.875
172 1 3.875 3.875 3.1
173 1 3.1 3.1 4.65
174 1 3.1 3.875 5.425000000000001
175 1 3.875 3.1 5.425000000000001
176 1 3.875 3.875 4.65
177 1 3.1 4.65 0.0
178 1 3.1 5.425000000000001 0.775
179 1 3.875 4.65 0.775
180 1 3.875 5.425000000000001 0.0
181 1 3.1 4.65 1.55
182 1 3.1 5.425000000000001 2.325
183 1 3.875 4.65 2.325
184 1 3.875 5.425000000000001 1.55
185 1 3.1 4.65 3.1
186 1 3.1 5.425000000000001 3.875
187 1 3.875 4.65 3.875
188 1 3.875 5.425000000000001 3.1
189 1 3.1 4.65 4.65
190 1 3.1 5.425000000000001 5.425000000000001
191 1 3.875 4.65 5.425000000000001
192 1 3.875 5.425000000000001 4.65
193 1 4.65 0.0 0.0
194 1 4.65 0.775 0.775
195 1 5.425000000000001 0.0 0.775
196 1 5.425000000000001 0.775 0.0
197 1 4.65 0.0 1.55
198 1 4.65 0.775 2.325
199 1 5.425000000000001 0.0 2.325
200 1 5.425000000000001 0.775 1.55
201 1 4.65 0.0 3.1
202 1 4.65 0.775 3.875
203 1 5.425000000000001 0.0 3.875
204 1 5.425000000000001 0.775 3.1
205 1 4.65 0.0 4.65
206 1 4.65 0.775 5.425000000000001
207 1 5.425000000000001 0.0 5.425000000000001
208 1 5.425000000000001 0.775 4.65
209 1 4.65 1.55 0.0
210 1 4.65 2.325 0.775
211 1 5.425000000000001 1.55 0.775
212 1 5.425000000000001 2.325 0.0
213 1 4.65 1.55 1.55
214 1 4.65 2.325 2.325
215 1 5.425000000000001 1.55 2.325
216 1 5.425000000000001 2.325 1.55
217 1 4.65 1.55 3.1
218 1 4.65 2.325 3.875
219 1 5.425000000000001 1.55 3.875
220 1 5.425000000000001 2.325 3.1
221 1 4.65 1.55 4.65
222 1 4.65 2.325 5.425000000000001
223 1 5.425000000000001 1.55 5.425000000000001
224 1 5.425000000000001 2.325 4.65
225 1 4.65 3.1 0.0
226 1 4.65 3.875 0.775
227 1 5.425000000000001 3.1 0.775
228 1 5.425000000000001 3.875 0.0
229 1 4.65 3.1 1.55
230 1 4.65 3.875 2.325
231 1 5.425000000000001 3.1 2.325
232 1 5.425000000000001 3.875 1.55
233 1 4.65 3.1 3.1
234 1 4.65 3.875 3.875
235 1 5.425000000000001 3.1 3.875
236 1 5.425000000000001 3.875 3.1
237 1 4.65 3.1 4.65
238 1 4.65 3.875 5.425000000000001
239 1 5.425000000000001 3.1 5.425000000000001
240 1 5.425000000000001 3.875 4.65
241 1 4.65 4.65 0.0
242 1 4.65 5.425000000000001 0.775
243 1 5.425000000000001 4.65 0.775
244 1 5.425000000000001 5.425000000000001 0.0
245 1 4.65 4.65 1.55
246 1 4.65 5.425000000000001 2.325
247 1 5.425000000000001 4.65 2.325
248 1 5.425000000000001 5.425000000000001 1.55
249 1 4.65 4.65 3.1
250 1 4.65 5.425000000000001 3.875
251 1 5.425000000000001 4.65 3.875
252 1 5.425000000000001 5.425000000000001 3.1
253 1 4.65 4.65 4.65
254 1 4.65 5.425000000000001 5.425000000000001
255 1 5.425000000000001 4.65 5.425000000000001
256 1 5.425000000000001 5.425000000000001 4.65

Velocities

1 0.0 0.0 0.0
2 0.0 0.0 0.0
3 0.0 0.0 0.0
4 0.0 0.0 0.0
5 0.0 0.0 0.0
6 0.0 0.0 0.0
7 0.0 0.0 0.0
8 0.0 0.0 0.0
9 0.0 0.0 0.0
10 0.0 0.0 0.0
11 0.0 0.0 0.0
12 0.0 0.0 0.0
13 0.0 0.0 0.0
14 0.0 0.0 0.0
15 0.0 0.0 0.0
16 0.0 0.0 0.0
17 0.0 0.0 0.0
18 0.0 0.0 0.0
19 0.0 0.0 0.0
20 0.0 0.0 0.0
21 0.0 0.0 0.0
22 0.0 0.0 0.0
23 0.0 0.0 0.0
24 0.0 0.0 0.0
25 0.0 0.0 0.0
26 0.0 0.0 0.0
27 0.0 0.0 0.0
28 0.0 0.0 0.0
29 0.0 0.0 0.0
30 0.0 0.0 0.0
31 0.0 0.0 0.0
32 0.0 0.0 0.0
33 0.0 0.0 0.0
34 0.0 0.0 0.0
35 0.0 0.0 0.0
36 0.0 0.0 0.0
37 0.0 0.0 0.0
38 0.0 0.0 0.0
39 0.0 0.0 0.0
40 0.0 0.0 0.0
41 0.0 0.0 0.0
42 0.0 0.0 0.0
43 0.0 0.0 0.0
44 0.0 0.0 0.0
45 0.0 0.0 0.0
46 0.0 0.0 0.0
47 0.0 0.0 0.0
48 0.0 0.0 0.0
49 0.0 0.0 0.0
50 0.0 0.0 0.0
51 0.0 0.0 0.0
52 0.0 0.0 0.0
53 0.0 0.0 0.0
54 0.0 0.0 0.0
55 0.0 0.0 0.0
56 0.0 0.0 0.0
57 0.0 0.0 0.0
58 0.0 0.0 0.0
59 0.0 0.0 0.0
60 0.0 0.0 0.0
61 0.0 0.0 0.0
62 0.0 0.0 0.0
63 0.0 0.0 0.0
64 0.0 0.0 0.0
65 0.0 0.0 0.0
66 0.0 0.0 0.0
67 0.0 0.0 0.0
68 0.0 0.0 0.0
69 0.0 0.0 0.0
70 0.0 0.0 0.0
71 0.0 0.0 0.0
72 0.0 0.0 0.0
73 0.0 0.0 0.0
74 0.0 0.0 0.0
75 0.0 0.0 0.0
76 0.0 0.0 0.0
77 0.0 0.0 0.0
78 0.0 0.0 0.0
79 0.0 0.0 0.0
80 0.0 0.0 0.0
81 0.0 0.0 0.0
82 0.0 0.0 0.0
83 0.0 0.0 0.0
84 0.0 0.0 0.0
85 0.0 0.0 0.0
86 0.0 0.0 0.0
87 0.0 0.0 0.0
88 0.0 0.0 0.0
89 0.0 0.0 0.0
90 0.0 0.0 0.0
91 0.0 0.0 0.0
92 0.0 0.0 0.0
93 0.0 0.0 0.0
94 0.0 0.0 0.0
95 0.0 0.0 0.0
96 0.0 0.0 0.0
97 0.0 0.0 0.0
98 0.0 0.0 0.0
99 0.0 0.0 0.0
100 0.0 0.0 0.0
101 0.0 0.0 0.0
102 0.0 0.0 0.0
103 0.0 0.0 0.0
104 0.0 0.0 0.0
105 0.0 0.0 0.0
106 0.0 0.0 0.0
107 0.0 0.0 0.0
108 0.0 0.0 0.0
109 0.0 0.0 0.0
110 0.0 0.0 0.0
111 0.0 0.0 0.0
112 0.0 0.0 0.0
113 0.0 0.0 0.0
114 0.0 0.0 0.0
115 0.0 0.0 0.0
116 0.0 0.0 0.0
117 0.0 0.0 0.0
118 0.0 0.0 0.0
119 0.0 0.0 0.0
120 0.0 0.0 0.0
121 0.0 0.0 0.0
122 0.0 0.0 0.0
123 0.0 0.0 0.0
124 0.0 0.0 0.0
125 0.0 0.0 0.0
126 0.0 0.0 0.0
127 0.0 0.0 0.0
128 0.0 0.0 0.0
129 0.0 0.0 0.0
130 0.0 0.0 0.0
131 0.0 0.0 0.0
132 0.0 0.0 0.0
133 0.0 0.0 0.0
134 0.0 0.0 0.0
135 0.0 0.0 0.0
136 0.0 0.0 0.0
137 0.0 0.0 0.0
138 0.0 0.0 0.0
139 0.0 0.0 0.0
140 0.0 0.0 0.0
141 0.0 0.0 0.0
142 0.0 0.0 0.0
143 0.0 0.0 0.0
144 0.0 0.0 0.0
145 0.0 0.0 0.0
146 0.0 0.0 0.0
147 0.0 0.0 0.0
148 0.0 0.0 0.0
149 0.0 0.0 0.0
150 0.0 0.0 0.0
151 0.0 0.0 0.0
152 0.0 0.0 0.0
153 0.0 0.0 0.0
154 0.0 0.0 0.0
155 0.0 0.0 0.0
156 0.0 0.0 0.0
157 0.0 0.0 0.0
158 0.0 0.0 0.0
159 0.0 0.0 0.0
160 0.0 0.0 0.0
161 0.0 0.0 0.0
162 0.0 0.0 0.0
163 0.0 0.0 0.0
164 0.0 0.0 0.0
165 0.0 0.0 0.0
166 0.0 0.0 0.0
167 0.0 0.0 0.0
168 0.0 0.0 0.0
169 0.0 0.0 0.0
170 0.0 0.0 0.0
171 0.0 0.0 0.0
172 0.0 0.0 0.0
173 0.0 0.0 0.0
174 0.0 0.0 0.0
175 0.0 0.0 0.0
176 0.0 0.0 0.0
177 0.0 0.0 0.0
178 0.0 0.0 0.0
179 0.0 0.0 0.0
180 0.0 0.0 0.0
181 0.0 0.0 0.0
182 0.0 0.0 0.0
183 0.0 0.0 0.0
184 0.0 0.0 0.0
185 0.0 0.0 0.0
186 0.0 0.0 0.0
187 0.0 0.0 0.0
188 0.0 0.0 0.0
189 0.0 0.0 0.0
190 0.0 0.0 0.0
191 0.0 0.0 0.0
192 0.0 0.0 0.0
193 0.0 0.0 0.0
194 0.0 0.0 0.0
195 0.0 0.0 0.0
196 0.0 0.0 0.0
197 0.0 0.0 0.0
198 0.0 0.0 0.0
199 0.0 0.0 0.0
200 0.0 0.0 0.0
201 0.0 0.0 0.0
202 0.0 0.0 0.0
203 0.0 0.0 0.0
204 0.0 0.0 0.0
205 0.0 0.0 0.0
206 0.0 0.0 0.0
207 0.0 0.0 0.0
208 0.0 0.0 0.0
209 0.0 0.0 0.0
210 0.0 0.0 0.0
211 0.0 0.0 0.0
212 0.0 0.0 0.0
213 0.0 0.0 0.0
214 0.0 0.0 0.0
215 0.0 0.0 0.0
216 0.0 0.0 0.0
217 0.0 0.0 0.0
218 0.0 0.0 0.0
219 0.0 0.0 0.0
220 0.0 0.0 0.0
221 0.0 0.0 0.0
222 0.0 0.0 0.0
223 0.0 0.0 0.0
224 0.0 0.0 0.0
225 0.0 0.0 0.0
226 0.0 0.0 0.0
227 0.0 0.0 0.0
228 0.0 0.0 0.0
229 0.0 0.0 0.0
230 0.0 0.0 0.0
231 0.0 0.0 0.0
232 0.0 0.0 0.0
233 0.0 0.0 0.0
234 0.0 0.0 0.0
235 0.0 0.0 0.0
236 0.0 0.0 0.0
237 0.0 0.0 0.0
238 0.0 0.0 0.0
239 0.0 0.0 0.0
240 0.0 0.0 0.0
241 0.0 0.0 0.0
242 0.0 0.0 0.0
243 0.0 0.0 0.0
244 0.0 0.0 0.0
245 0.0 0.0 0.0
246 0.0 0.0 0.0
247 0.0 0.0 0.0
248 0.0 0.0 0.0
249 0.0 0.0 0.0
250 0.0 0.0 0.0
251 0.0 0.0 0.0
252 0.0 0.0 0.0
253 0.0 0.0 0.0
254 0.0 0.0 0.0
255 0.0 0.0 0.0
256 0.0 0.0 0.0
